HEADER
"PSFversion" "1.00"
"vd7v" "vd7v"
"vd6v" "vd6v"
"vd5v" "vd5v"
"vd4v" "vd4v"
"vd3v" "vd3v"
"vd2v" "vd2v"
"vd1v" "vd1v"
"vd0v" "vd0v"
"voutv" "voutv"
