HEADER
"PSFversion" "1.00"
"PLUSv" ":1v"
"MINUSv" "(FUNCTION minus(root(\"PLUS\")))v"
