HEADER
"PSFversion" "1.00"
"PLUSv" ":pv"
"MINUSv" "(FUNCTION minus(root(\"PLUS\")))v"
