HEADER
"PSFversion" "1.00"
"Dv" ":dv"
"Gv" ":gv"
"Sv" ":sv"
"Bv" ":bv"
