HEADER
"PSFversion" "1.00"
"I19n" "NOR3"
"I20n" "inverter"
"I21n" "buffer"
"I9n I8n I7n I6n I5n I4n I2n I3n" "DFF_reset"
"CLK<0>v" ":1v"
"CLK<1>v" ":2v"
"CLK<2>v" ":3v"
"CLK<3>v" ":4v"
"CLK<4>v" ":5v"
"CLK<5>v" ":6v"
"CLK<6>v" ":7v"
"CLK<7>v" ":8v"
"CLKCv" ":9v"
"CLKSv" ":10v"
"RDYv" ":11v"
"VDDv" ":12v"
"VSSv" ":13v"
