HEADER
"PSFversion" "1.00"
"M2n M0n" "analogLib_nmos4_spectre"
"M3n M1n" "analogLib_pmos4_spectre"
"VDDv" ":1v"
"VINv" ":2v"
"VOUTv" ":3v"
"VSSv" ":4v"
