HEADER
"PSFversion" "1.00"
"I1n" "comparator_p"
"I2n" "SAR_logic"
"I6n" "inverter"
"I0n" "SH"
"B<0>v" ":1v"
"B<1>v" ":2v"
"B<2>v" ":3v"
"B<3>v" ":4v"
"B<4>v" ":5v"
"B<5>v" ":6v"
"B<6>v" ":7v"
"B<7>v" ":8v"
"Bbar<0>v" ":9v"
"Bbar<1>v" ":10v"
"Bbar<2>v" ":11v"
"Bbar<3>v" ":12v"
"Bbar<4>v" ":13v"
"Bbar<5>v" ":14v"
"Bbar<6>v" ":15v"
"Bbar<7>v" ":16v"
"CLKCv" ":17v"
"CLKSv" ":18v"
"RDYv" ":19v"
"V2DAC_N<0>v" ":20v"
"V2DAC_N<1>v" ":21v"
"V2DAC_N<2>v" ":22v"
"V2DAC_N<3>v" ":23v"
"V2DAC_N<4>v" ":24v"
"V2DAC_N<5>v" ":25v"
"V2DAC_N<6>v" ":26v"
"V2DAC_N<7>v" ":27v"
"V2DAC_P<0>v" ":28v"
"V2DAC_P<1>v" ":29v"
"V2DAC_P<2>v" ":30v"
"V2DAC_P<3>v" ":31v"
"V2DAC_P<4>v" ":32v"
"V2DAC_P<5>v" ":33v"
"V2DAC_P<6>v" ":34v"
"V2DAC_P<7>v" ":35v"
"VCMP_Nv" ":36v"
"VCMP_Pv" ":37v"
"VDDv" ":38v"
"VIN_Nv" ":39v"
"VIN_Pv" ":40v"
"VREFv" ":41v"
"VSH_Nv" ":42v"
"VSH_Pv" ":43v"
"VSSv" ":44v"
"CLK<0>v" ":45v"
"CLK<1>v" ":46v"
"CLK<2>v" ":47v"
"CLK<3>v" ":48v"
"CLK<4>v" ":49v"
"CLK<5>v" ":50v"
"CLK<6>v" ":51v"
"CLK<7>v" ":52v"
