HEADER
"PSFversion" "1.00"
"I5n I4n I3n" "DFF_reset"
"I13<0>n I13<1>n I13<2>n I13<3>n" "inverter"
"I11<0>n I11<1>n I11<2>n I11<3>n" "buffer_delay"
"I2n" "DFF_set"
"I10<0>n I10<1>n I10<2>n I10<3>n" "NAND2"
"CLKv" ":1v"
"CLK_DIV<0>v" ":2v"
"CLK_DIV<1>v" ":3v"
"CLK_DIV<2>v" ":4v"
"CLK_DIV<3>v" ":5v"
"INITIALIZEv" ":6v"
"VDDv" ":7v"
"VSSv" ":8v"
