HEADER
"PSFversion" "1.00"
"I2n" "NAND2"
"I5n" "inverter"
"I4n" "buffer"
"M0n" "analogLib_nmos4_spectre"
"I0n" "DFF"
"M1n" "analogLib_pmos4_spectre"
"Bv" ":1v"
"CLKv" ":2v"
"OUTv" ":3v"
"V2DACv" ":4v"
"VDDv" ":5v"
"VREFv" ":6v"
"VSSv" ":7v"
