HEADER
"PSFversion" "1.00"
"I6n I5n" "Latch"
"I7n" "inverter"
"CLKv" ":1v"
"Dv" ":2v"
"Qv" ":3v"
"Qbarv" ":4v"
"VDDv" ":5v"
"VSSv" ":6v"
