HEADER
"PSFversion" "1.00"
"I10<0>n I10<1>n I10<2>n I10<3>n I10<4>n I10<5>n I10<6>n I10<7>n I2<0>n I2<1>n I2<2>n I2<3>n I2<4>n I2<5>n I2<6>n I2<7>n" "DAC_ctrl_logic"
"I0n" "async_logic"
"B<0>v" ":1v"
"B<1>v" ":2v"
"B<2>v" ":3v"
"B<3>v" ":4v"
"B<4>v" ":5v"
"B<5>v" ":6v"
"B<6>v" ":7v"
"B<7>v" ":8v"
"Bbar<0>v" ":9v"
"Bbar<1>v" ":10v"
"Bbar<2>v" ":11v"
"Bbar<3>v" ":12v"
"Bbar<4>v" ":13v"
"Bbar<5>v" ":14v"
"Bbar<6>v" ":15v"
"Bbar<7>v" ":16v"
"CLKCv" ":17v"
"CLKSv" ":18v"
"OUT_Nv" ":19v"
"OUT_Pv" ":20v"
"RDYv" ":21v"
"V2DAC_N<0>v" ":22v"
"V2DAC_N<1>v" ":23v"
"V2DAC_N<2>v" ":24v"
"V2DAC_N<3>v" ":25v"
"V2DAC_N<4>v" ":26v"
"V2DAC_N<5>v" ":27v"
"V2DAC_N<6>v" ":28v"
"V2DAC_N<7>v" ":29v"
"V2DAC_P<0>v" ":30v"
"V2DAC_P<1>v" ":31v"
"V2DAC_P<2>v" ":32v"
"V2DAC_P<3>v" ":33v"
"V2DAC_P<4>v" ":34v"
"V2DAC_P<5>v" ":35v"
"V2DAC_P<6>v" ":36v"
"V2DAC_P<7>v" ":37v"
"VDDv" ":38v"
"VREFv" ":39v"
"VSSv" ":40v"
"CLK<0>v" ":41v"
"CLK<1>v" ":42v"
"CLK<2>v" ":43v"
"CLK<3>v" ":44v"
"CLK<4>v" ":45v"
"CLK<5>v" ":46v"
"CLK<6>v" ":47v"
"CLK<7>v" ":48v"
