HEADER
"PSFversion" "1.00"
"I2n I1n" "CDAC"
"I0n" "bootstrap_diff"
"CLKv" ":1v"
"CLKbarv" ":2v"
"INNv" ":3v"
"INPv" ":4v"
"OUTNv" ":5v"
"OUTPv" ":6v"
"V2DAC_N<0>v" ":7v"
"V2DAC_N<1>v" ":8v"
"V2DAC_N<2>v" ":9v"
"V2DAC_N<3>v" ":10v"
"V2DAC_N<4>v" ":11v"
"V2DAC_N<5>v" ":12v"
"V2DAC_N<6>v" ":13v"
"V2DAC_N<7>v" ":14v"
"V2DAC_P<0>v" ":15v"
"V2DAC_P<1>v" ":16v"
"V2DAC_P<2>v" ":17v"
"V2DAC_P<3>v" ":18v"
"V2DAC_P<4>v" ":19v"
"V2DAC_P<5>v" ":20v"
"V2DAC_P<6>v" ":21v"
"V2DAC_P<7>v" ":22v"
"VDDv" ":23v"
"VSSv" ":24v"
