HEADER
"PSFversion" "1.00"
"__NEXT_FILE__" "tb_chip_core_TI_2"
